<VTKFile type="UnstructuredGrid" version="0.1" byte_order="LittleEndian">
<UnstructuredGrid>
<Piece NumberOfPoints = "12" NumberOfCells = "4">
<PointData Scalars="NODEGID"> 
<DataArray NumberOfComponents="1 " type="Float32" Name="NODEGID" format="ascii">
5
1
3
3
1
2
4
1
5
2
1
4
</DataArray>
</PointData>
<Points>
 <DataArray NumberOfComponents="3 " type="Float32" Name="points" format="ascii"  >
1 0 0 
0.5 0.5 0 
0 0 0 
0 0 0 
0.5 0.5 0 
0 1 0 
1 1 0 
0.5 0.5 0 
1 0 0 
0 1 0 
0.5 0.5 0 
1 1 0 
</DataArray>
</Points>
<Cells>
<DataArray type="Int32" Name="connectivity" format="ascii" >
0 1 2 
3 4 5 
6 7 8 
9 10 11 
</DataArray>
<DataArray type="Int32" Name="offsets" format="ascii" >
3 6 9 12 
</DataArray>
<DataArray type="UInt8" Name="types" format="ascii">
5 5 5 5 
</DataArray>
</Cells>
</Piece>
</UnstructuredGrid>
</VTKFile>
